Start File for LAMMPS
0 atoms
1 atom types

0 26 xlo xhi
0 22 ylo yhi
0 27 zlo zhi
13 0 0 xy xz yz

Masses

1 47.867000

Atoms

