Start File for LAMMPS
0 atoms
1 atom types

0.0 16.00 xlo xhi
0.0 16.00 ylo yhi
0.0 16.00 zlo zhi

Masses

1 47.867000

Atoms

