Start File for LAMMPS
2 atoms
1 atom types

0.0 1.00 xlo xhi
0.0 0.866025 ylo yhi
0.0 1.588 zlo zhi
0.5 0E-15 0E-15 xy xz yz

Masses

1 47.867000

Atoms

1 ID 0.000000000000000 0.000000000000000 0.000000000000000
2 ID 0.000000000000000 0.577350269189626 0.794000000000000

